/*--------------------------------*- C++ -*----------------------------------*\
| AeroSynthX-generated OpenFOAM dictionary                                    |
\*---------------------------------------------------------------------------*/
FoamFile
{
    version     2.0;
    format      ascii;
    class       volScalarField;
    object      omega;
}
// * * * * * * * * * * * * * * * * * * * * * * * * * * * * * * * * * * * * * //

dimensions      [0 0 -1 0 0 0 0];

internalField   uniform 95.83148475;

boundaryField
{
    inlet
    {
        type            fixedValue;
        value           uniform 95.83148475;
    }
    outlet
    {
        type            zeroGradient;
    }
    top
    {
        type            slip;
    }
    bottom
    {
        type            slip;
    }
    frontAndBack
    {
        type            empty;
    }
}

// ************************************************************************* //
