/*--------------------------------*- C++ -*----------------------------------*\
| AeroSynthX-generated OpenFOAM dictionary                                    |
\*---------------------------------------------------------------------------*/
FoamFile
{
    version     2.0;
    format      ascii;
    class       volScalarField;
    object      k;
}
// * * * * * * * * * * * * * * * * * * * * * * * * * * * * * * * * * * * * * //

dimensions      [0 2 -2 0 0 0 0];

internalField   uniform 18.375;

boundaryField
{
    inlet
    {
        type            fixedValue;
        value           uniform 18.375;
    }
    outlet
    {
        type            zeroGradient;
    }
    top
    {
        type            slip;
    }
    bottom
    {
        type            slip;
    }
    frontAndBack
    {
        type            empty;
    }
}

// ************************************************************************* //
